 Gaussian 16, Revision C.01,
 Gaussian 16:  ES64L-G16RevC.01  3-Jul-2019

 --------------
 #P LSDA/6-31G*
 --------------

 -------
 TitleMe
 -------
 Symbolic Z-matrix:
 Charge =  0 Multiplicity = 1

                         Standard orientation:
 ---------------------------------------------------------------------
 Center     Atomic      Atomic             Coordinates (Angstroms)
 Number     Number       Type             X           Y           Z
 ---------------------------------------------------------------------
      1          2           0        0.000000    0.000000    0.000000
 ---------------------------------------------------------------------

 SCF Done:  E(RS-VWN) =  -2.86414688260     A.U. after    5 cycles

 The electronic state is 1-A1G.
 Alpha  occ. eigenvalues --   -0.57525
 Alpha virt. eigenvalues --    1.07089

 Mulliken charges:
               1
     1  He   0.000000
 Sum of Mulliken charges =   0.00000

 Dipole moment (field-independent basis, Debye):
    X=              0.0000    Y=              0.0000    Z=              0.0000  Tot=              0.0000
 Quadrupole moment (field-independent basis, Debye-Ang):
   XX=             -1.0737   YY=             -1.0737   ZZ=             -1.0737
   XY=              0.0000   XZ=              0.0000   YZ=              0.0000

 Normal termination of Gaussian 16 at Wed Apr  3 11:27:09 2024.
